% Model:              xy_ani2_simulation.mph
% Version:            COMSOL 4.3.2.189
% Date:               Sep 9 2020, 11:49
% Dimension:          2
% Nodes:              12650
% Expressions:        1
% Description:        Temperature
% Length unit:        mm
% x                       y                        T (K)
-0.5                      -0.49                    0
-0.5                      -0.5                     0
-0.49349868562856475      -0.49318606298199913     5.7581320364900816E-5
-0.4899999999999927       -0.5                     0
-0.5                      -0.4800000000000001      0
-0.4926271683303073       -0.48483488790093787     1.453465631009269E-4
-0.4799999999999928       -0.5                     0
-0.48486625981252374      -0.4910954270090579      1.7512763521171777E-4
-0.5                      -0.4700000000000002      0
-0.49222715290764196      -0.475120775103087       2.5144248706331866E-4
-0.46999999999999287      -0.5                     0
-0.47444389633819667      -0.49193840408825174     2.676016943017234E-4
-0.5                      -0.4600000000000002      0
-0.49203918612197056      -0.46510199084555315     3.61353604122089E-4
-0.45999999999999297      -0.5                     0
-0.4647482412465928       -0.491903129533208       3.704819793981338E-4
-0.5                      -0.4500000000000002      0
-0.4919956866822642       -0.4550720906288412      4.6797195621234414E-4
-0.4499999999999931       -0.5                     0
-0.454920320919676        -0.49186925035007556     4.753045805171576E-4
-0.5                      -0.4400000000000003      0
-0.4919694686401372       -0.44505588363714127     5.745150070651648E-4
-0.4399999999999932       -0.5                     0
-0.4449379730150036       -0.49187400277718485     5.795226707758033E-4
-0.5                      -0.4300000000000004      0
-0.49195131602283193      -0.4350426177307735      6.812343347900282E-4
-0.4299999999999933       -0.5                     0
-0.43495248241486917      -0.49188788338019984     6.824667758455098E-4
-0.5                      -0.4200000000000004      0
-0.4919318901270315       -0.42502717770193216     7.88817791596509E-4
-0.4199999999999934       -0.5                     0
-0.42497731683507617      -0.49189799197997325     7.848212722490615E-4
-0.5                      -0.41000000000000036     0
-0.49191706722519624      -0.4150157340486855      8.966367185510017E-4
-0.4099999999999935       -0.5                     0
-0.41499115584774643      -0.4919015643184996      8.871776434936381E-4
-0.5                      -0.40000000000000047     0
-0.4919084346713485       -0.40500749300242506     0.0010043581080880959
-0.3999999999999936       -0.5                     0
-0.40499999999999353      -0.49190266247461556     9.891463124295143E-4
-0.5                      -0.39000000000000057     0
-0.4919041790899392       -0.39500272847092677     0.0011120195219557199
-0.3899999999999937       -0.5                     0
-0.3949999999999937       -0.49190266247461556     0.001090593096030406
-0.5                      -0.38000000000000056     0
-0.4919028409098785       -0.3850006703875453      0.0012197108913767562
-0.3799999999999938       -0.5                     0
-0.3849999999999936       -0.49190266247461556     0.0011912248784895878
-0.5                      -0.37000000000000055     0
-0.49190267437203966      -0.3750000526741328      0.0013276507185731705
-0.36999999999999394      -0.5                     0
-0.3749999999999938       -0.49190266247461556     0.0012909582429364392
-0.5                      -0.36000000000000065     0
-0.49190266247461545      -0.36500000000000066     0.0014360162830583218
-0.359999999999994        -0.5                     0
-0.364999999999994        -0.49190266247461545     0.001389708353800029
-0.5                      -0.35000000000000075     0
-0.49190266247461556      -0.3550000000000007      0.0015448680021282128
-0.3499999999999941       -0.5                     0
-0.35499999999999404      -0.49190266247461556     0.0014873889278454796
-0.5                      -0.34000000000000075     0
-0.49190266247461545      -0.34500000000000075     0.0016542416658655832
-0.33999999999999425      -0.5                     0
-0.34499999999999414      -0.49190266247461556     0.0015839122094689492
-0.3299999999999943       -0.5                     0
-0.33499999999999425      -0.49190266247461556     0.00167918896641509
-0.5                      -0.33000000000000074     0
-0.49190266247461545      -0.3350000000000008      0.0017641698713255353
-0.3199999999999944       -0.5                     0
-0.32499999999999435      -0.49190266247461545     0.0017731285064946191
-0.5                      -0.32000000000000084     0
-0.49190266247461545      -0.3250000000000008      0.0018746844803733417
-0.3099999999999945       -0.5                     0
-0.3149999999999945       -0.49190266247461556     0.0018656387166192513
-0.5                      -0.31000000000000094     0
-0.49190266247461556      -0.31500000000000083     0.0019858165544703247
-0.2999999999999946       -0.5                     0
-0.30499999999999455      -0.49190266247461556     0.001956626125042521
-0.5                      -0.30000000000000093     0
-0.49190266247461556      -0.3050000000000009      0.0020975962860318655
-0.2899999999999947       -0.5                     0
-0.29499999999999466      -0.49190266247461556     0.002045995987512874
-0.2799999999999948       -0.5                     0
-0.28499999999999476      -0.49190266247461545     0.0021336523978959378
-0.5                      -0.2900000000000009      0
-0.49190266247461545      -0.2950000000000009      0.0022100529262531828
-0.5                      -0.280000000000001       0
-0.49190266247461556      -0.28500000000000103     0.0023232147092039812
-0.2699999999999949       -0.5                     0
-0.27499999999999486      -0.49190266247461556     0.002219498423632025
-0.25999999999999507      -0.5                     0
-0.26499999999999496      -0.49190266247461556     0.0023034362661898595
-0.5                      -0.27000000000000113     0
-0.49190266247461556      -0.2750000000000011      0.002437108772006889
-0.5                      -0.2600000000000011      0
-0.49190266247461545      -0.2650000000000011      0.002551761070919658
-0.24999999999999512      -0.5                     0
-0.25499999999999506      -0.49190266247461556     0.0023853674464540463
-0.23999999999999524      -0.5                     0
-0.24499999999999517      -0.49190266247461556     0.00246519301474657
-0.5                      -0.2500000000000011      0
-0.49190266247461545      -0.25500000000000117     0.002667196293151383
-0.5                      -0.2400000000000012      0
-0.49190266247461545      -0.2450000000000012      0.0027834377642519874
-0.22999999999999532      -0.5                     0
-0.23499999999999527      -0.49190266247461556     0.002542813784926977
-0.21999999999999542      -0.5                     0
-0.22499999999999537      -0.49190266247461556     0.002618130591748796
-0.5                      -0.2300000000000013      0
-0.49190266247461545      -0.2350000000000012      0.0029005073509254693
-0.5                      -0.2200000000000013      0
-0.49190266247461545      -0.22500000000000128     0.003018425359132416
-0.20999999999999552      -0.5                     0
-0.21499999999999547      -0.49190266247461545     0.0026910445703714416
-0.19999999999999563      -0.5                     0
-0.20499999999999557      -0.49190266247461545     0.0027614574566413694
-0.5                      -0.21000000000000132     0
-0.49190266247461545      -0.21500000000000133     0.003137210427362622
-0.5                      -0.2000000000000014      0
-0.49190266247461556      -0.2050000000000014      0.003256879414977557
-0.18999999999999573      -0.5                     0
-0.19499999999999568      -0.49190266247461556     0.00282927190646863
-0.17999999999999583      -0.5                     0
-0.1849999999999958       -0.49190266247461556     0.0028943918323368315
-0.5                      -0.19000000000000147     0
-0.49190266247461556      -0.19500000000000145     0.003377447285544299
-0.5                      -0.1800000000000015      0
-0.49190266247461556      -0.18500000000000147     0.0034989269851059394
-0.16999999999999596      -0.5                     0
-0.17499999999999588      -0.49190266247461556     0.0029567227547038747
-0.15999999999999603      -0.5                     0
-0.164999999999996        -0.49190266247461545     0.0030161721657812595
-0.5                      -0.1700000000000015      0
-0.49190266247461545      -0.17500000000000152     0.0036213293153631782
-0.14999999999999614      -0.5                     0
-0.15499999999999609      -0.49190266247461556     0.003072649902924374
-0.13999999999999624      -0.5                     0
-0.1449999999999962       -0.49190266247461556     0.00312606852863569
-0.5                      -0.16000000000000159     0
-0.49190266247461545      -0.16500000000000156     0.00374466280177138
-0.5                      -0.15000000000000166     0
-0.49190266247461556      -0.15500000000000164     0.0038689335565944114
-0.5                      -0.14000000000000168     0
-0.49190266247461545      -0.14500000000000166     0.00399414513699468
-0.12999999999999637      -0.5                     0
-0.13499999999999632      -0.49190266247461545     0.0031763437139751102
-0.5                      -0.1300000000000017      0
-0.49190266247461545      -0.1350000000000017      0.004120298398282722
-0.5                      -0.12000000000000177     0
-0.49190266247461545      -0.12500000000000178     0.004247391342500178
-0.11999999999999644      -0.5                     0
-0.12499999999999639      -0.49190266247461545     0.0032233946220015276
-0.10999999999999654      -0.5                     0
-0.1149999999999965       -0.49190266247461545     0.0032671442877326164
-0.5                      -0.11000000000000185     0
-0.49190266247461556      -0.11500000000000181     0.004375418962559805
-0.09999999999999665      -0.5                     0
-0.1049999999999966       -0.49190266247461545     0.0033075199910161724
-0.08999999999999675      -0.5                     0
-0.0949999999999967       -0.49190266247461545     0.0033444536186600063
-0.5                      -0.10000000000000187     0
-0.49190266247461545      -0.10500000000000184     0.004504373082228056
-0.5                      -0.09000000000000188     0
-0.49190266247461545      -0.09500000000000187     0.004634242192295948
-0.07999999999999685      -0.5                     0
-0.08499999999999681      -0.49190266247461545     0.0033778820121682803
-0.06999999999999695      -0.5                     0
-0.0749999999999969       -0.49190266247461545     0.0034077472974856668
-0.5                      -0.08000000000000196     0
-0.49190266247461545      -0.08500000000000192     0.004765011283356935
-0.5                      -0.07000000000000205     0
-0.49190266247461556      -0.075000000000002       0.004896661675680272
-0.059999999999997056     -0.5                     0
-0.064999999999997        -0.49190266247461545     0.0034339971932574333
-0.04999999999999716      -0.5                     0
-0.05499999999999711      -0.49190266247461545     0.0034565852942727844
-0.5                      -0.06000000000000205     0
-0.49190266247461545      -0.06500000000000204     0.005029170846752217
-0.5                      -0.05000000000000207     0
-0.49190266247461545      -0.055000000000002075    0.00516251225713892
-0.03999999999999726      -0.5                     0
-0.04499999999999721      -0.49190266247461545     0.003475471326971673
-0.029999999999997362     -0.5                     0
-0.03499999999999731      -0.49190266247461545     0.003490621374157468
-0.5                      -0.040000000000002145    0
-0.49190266247461545      -0.045000000000002115    0.005296655175419698
-0.5                      -0.03000000000000222     0
-0.49190266247461556      -0.03500000000000219     0.005431564503029686
-0.019999999999997464     -0.5                     0
-0.024999999999997413     -0.49190266247461545     0.003502008066368488
-0.009999999999997566     -0.5                     0
-0.014999999999997515     -0.49190266247461545     0.0035096107377143317
-0.5                      -0.020000000000002238    0
-0.49190266247461545      -0.02500000000000223     0.005567200599955565
-0.5                      -0.010000000000002257    0
-0.49190266247461545      -0.015000000000002255    0.0057035191123281466
2.3314683517128287E-15    -0.5                     0
-0.00499999999999761      -0.49190266247461545     0.0035134155443739107
0.010000000000002257      -0.5                     0
0.005000000000002312      -0.49190266247461545     0.0035134155443741328
-0.5                      -2.3314683517128287E-15  0
-0.49190266247461545      -0.005000000000002312    0.005840470803068352
-0.5                      0.009999999999997566     0
-0.49190266247461545      0.00499999999999761      0.005978001386848114
0.020000000000002238      -0.5                     0
0.015000000000002258      -0.49190266247461545     0.003509610737715056
0.03000000000000222       -0.5                     0
0.02500000000000222       -0.49190266247461545     0.0035020080663698467
-0.5                      0.019999999999997464     0
-0.49190266247461545      0.014999999999997515     0.006116051370744732
-0.5                      0.029999999999997362     0
-0.49190266247461545      0.024999999999997413     0.006254555902077983
0.040000000000002145      -0.5                     0
0.03500000000000218       -0.49190266247461545     0.0034906213741596986
0.05000000000000207       -0.5                     0
0.045000000000002115      -0.49190266247461545     0.003475471326975114
-0.5                      0.03999999999999726      0
-0.49190266247461545      0.03499999999999731      0.006393444625032712
-0.5                      0.04999999999999716      0
-0.49190266247461545      0.04499999999999721      0.006532641547780085
0.06000000000000205       -0.5                     0
0.055000000000002075      -0.49190266247461545     0.003456585294277875
-0.5                      0.059999999999997056     0
-0.49190266247461545      0.05499999999999711      0.006672064921917368
0.07000000000000205       -0.5                     0
0.06500000000000204       -0.49190266247461545     0.0034339971932647504
0.08000000000000196       -0.5                     0
0.075000000000002         -0.49190266247461556     0.0034077472974958314
-0.5                      0.06999999999999695      0
-0.49190266247461545      0.064999999999997        0.006811627136147213
-0.5                      0.07999999999999685      0
-0.49190266247461545      0.07499999999999689      0.006951234626210696
0.09000000000000188       -0.5                     0
0.08500000000000192       -0.49190266247461545     0.003377882012182158
0.10000000000000187       -0.5                     0
0.09500000000000187       -0.49190266247461545     0.0033444536186783996
-0.5                      0.08999999999999675      0
-0.49190266247461556      0.08499999999999681      0.007090787803171276
-0.5                      0.09999999999999665      0
-0.49190266247461545      0.09499999999999671      0.007230181002217875
0.11000000000000185       -0.5                     0
0.10500000000000184       -0.49190266247461545     0.0033075199910399295
0.12000000000000177       -0.5                     0
0.11500000000000181       -0.49190266247461556     0.003267144287762494
-0.5                      0.10999999999999654      0
-0.49190266247461556      0.10499999999999661      0.0073693024542078175
-0.5                      0.11999999999999644      0
-0.49190266247461556      0.11499999999999648      0.007508034282213138
0.1300000000000017        -0.5                     0
0.12500000000000178       -0.49190266247461545     0.003223394622038259
0.14000000000000168       -0.5                     0
0.1350000000000017        -0.49190266247461545     0.0031763437140190226
-0.5                      0.12999999999999637      0
-0.49190266247461545      0.12499999999999639      0.00764625252534078
-0.5                      0.13999999999999624      0
-0.49190266247461545      0.13499999999999632      0.007783827192097023
0.15000000000000166       -0.5                     0
0.14500000000000166       -0.49190266247461545     0.0031260685286868413
0.16000000000000159       -0.5                     0
0.15500000000000164       -0.49190266247461556     0.003072649902982213
-0.5                      0.14999999999999614      0
-0.49190266247461556      0.1449999999999962       0.007920622345527166
-0.5                      0.15999999999999603      0
-0.49190266247461545      0.15499999999999609      0.008056496222295926
0.1700000000000015        -0.5                     0
0.16500000000000156       -0.49190266247461545     0.0030161721658448454
0.1800000000000015        -0.5                     0
0.17500000000000152       -0.49190266247461545     0.002956722754771841
-0.5                      0.16999999999999596      0
-0.49190266247461545      0.16499999999999598      0.008191301387775312
-0.5                      0.17999999999999583      0
-0.49190266247461545      0.17499999999999588      0.008324884929077637
0.19000000000000147       -0.5                     0
0.18500000000000147       -0.49190266247461545     0.0028943918324075275
0.2000000000000014        -0.5                     0
0.1950000000000014        -0.49190266247461545     0.0028292719065405735
-0.5                      0.18999999999999573      0
-0.49190266247461556      0.1849999999999958       0.0084570886877921
-0.5                      0.19999999999999563      0
-0.49190266247461556      0.19499999999999568      0.008587749533979437
0.21000000000000132       -0.5                     0
0.2050000000000014        -0.49190266247461556     0.0027614574567136996
0.2200000000000013        -0.5                     0
0.21500000000000133       -0.49190266247461545     0.0026910445704447727
-0.5                      0.20999999999999552      0
-0.49190266247461556      0.20499999999999557      0.008716699682721095
-0.5                      0.21999999999999542      0
-0.49190266247461556      0.21499999999999547      0.008843767054229972
0.2300000000000013        -0.5                     0
0.22500000000000128       -0.49190266247461545     0.002618130591825443
-0.5                      0.22999999999999532      0
-0.49190266247461545      0.22499999999999545      0.00896877567818999
0.2400000000000012        -0.5                     0
0.2350000000000012        -0.49190266247461545     0.0025428137850112605
0.2500000000000011        -0.5                     0
0.2450000000000012        -0.49190266247461545     0.002465193014844579
-0.5                      0.23999999999999524      0
-0.49190266247461556      0.23499999999999527      0.009091546142614293
-0.5                      0.24999999999999512      0
-0.49190266247461545      0.24499999999999522      0.009211896087098229
0.2600000000000011        -0.5                     0
0.2550000000000011        -0.49190266247461545     0.0023853674465726493
0.27000000000000113       -0.5                     0
0.2650000000000011        -0.49190266247461545     0.0023034362663351647
-0.5                      0.25999999999999507      0
-0.49190266247461556      0.254999999999995        0.009329640739879732
-0.5                      0.2699999999999949       0
-0.49190266247461556      0.26499999999999496      0.009444593497643086
0.280000000000001         -0.5                     0
0.2750000000000011        -0.49190266247461556     0.002219498423807493
0.2900000000000009        -0.5                     0
0.28500000000000103       -0.49190266247461556     0.0021336523981005085
-0.5                      0.2799999999999948       0
-0.49190266247461556      0.27499999999999486      0.00955656654647051
-0.5                      0.2899999999999947       0
-0.49190266247461545      0.28499999999999476      0.00966537152181609
0.30000000000000093       -0.5                     0
0.29500000000000093       -0.49190266247461545     0.002045995987738292
0.31000000000000094       -0.5                     0
0.3050000000000009        -0.49190266247461556     0.001956626125268975
-0.5                      0.2999999999999946       0
-0.49190266247461556      0.2949999999999946       0.009770820204809459
-0.5                      0.3099999999999945       0
-0.49190266247461556      0.30499999999999455      0.009872725251635664
0.32000000000000084       -0.5                     0
0.31500000000000083       -0.49190266247461556     0.0018656387168105358
0.33000000000000074       -0.5                     0
0.3250000000000008        -0.49190266247461545     0.0017731285065966877
-0.5                      0.3199999999999944       0
-0.49190266247461556      0.3149999999999945       0.009970900952161276
-0.5                      0.3299999999999943       0
-0.49190266247461556      0.32499999999999435      0.010065164013426048
0.34000000000000075       -0.5                     0
0.3350000000000008        -0.49190266247461545     0.0016791889663671244
0.35000000000000075       -0.5                     0
0.34500000000000075       -0.49190266247461545     0.0015839122092335888
-0.5                      0.33999999999999425      0
-0.49190266247461556      0.33499999999999425      0.010155334363074293
-0.5                      0.3499999999999941       0
-0.49190266247461556      0.34499999999999414      0.01024123596729662
0.36000000000000065       -0.5                     0
0.3550000000000007        -0.49190266247461556     0.0014873889274429203
0.37000000000000055       -0.5                     0
0.36500000000000066       -0.49190266247461545     0.0013897083532775233
-0.5                      0.359999999999994        0
-0.49190266247461556      0.35499999999999404      0.010322697657388387
-0.5                      0.36999999999999394      0
-0.49190266247461556      0.364999999999994        0.010399553958632743
0.38000000000000056       -0.5                     0
0.3750000000000006        -0.49190266247461545     0.0012909582422040136
0.39000000000000057       -0.5                     0
0.3850000000000006        -0.49190266247461556     0.001191224877618429
-0.5                      0.3799999999999938       0
-0.49190266247461556      0.3749999999999938       0.01047164591467145
-0.5                      0.3899999999999937       0
-0.49190266247461556      0.3849999999999936       0.010538821903689695
0.40000000000000047       -0.5                     0
0.39500000949684644       -0.49190266948931893     0.001090592056659503
0.41000000000000036       -0.5                     0
0.4050015508647484        -0.49190349221183804     9.89029174898343E-4
-0.5                      0.3999999999999936       0
-0.49190266247461556      0.3949999999999937       0.010600938387825129
-0.5                      0.4099999999999935       0
-0.49190250745817865      0.4049946994805739       0.010658036152149069
0.4200000000000004        -0.5                     0
0.41500563016156833       -0.4919076189067097      8.863660236583751E-4
0.4300000000000004        -0.5                     0
0.4250121576025145        -0.49191810055493485     7.825146658927356E-4
-0.5                      0.4199999999999934       0
-0.4919012065775542       0.41498591469344703      0.01071132113770863
-0.5                      0.4299999999999933       0
-0.4918950677490769       0.42495356099519643      0.010765522091227426
0.4400000000000003        -0.5                     0
0.435019739408303         -0.4919353858317607      6.777757732510556E-4
-0.5                      0.4399999999999932       0
-0.4918799378974988       0.43491069588834724      0.01082623249924043
0.4500000000000002        -0.5                     0
0.4450347678375837        -0.49195060249807976     5.730575547202801E-4
0.4600000000000002        -0.5                     0
0.45503121544376857       -0.49198954996717464     4.6712526746197285E-4
-0.5                      0.4499999999999931       0
-0.49186197081486255      0.44488455209597316      0.010885338588783546
-0.5                      0.45999999999999297      0
-0.4918668605576424       0.4548675146317656       0.010908241338639227
0.4700000000000002        -0.5                     0
0.4650472972886719        -0.49200821235760595     3.6258033267263986E-4
0.4800000000000001        -0.5                     0
0.47500127118568364       -0.49223512387185986     2.521385516017313E-4
-0.5                      0.46999999999999287      0
-0.4919090746481321       0.46476252601053436      0.010874969775072655
-0.5                      0.4799999999999928       0
-0.4919211841346953       0.47441690996940733      0.01087595620017713
0.49                      -0.5                     0
0.48489679335452535       -0.49257093908009464     1.4581192959178295E-4
0.5                       -0.5                     0
0.4932219638920524        -0.49348264653441387     5.7418744773612585E-5
-0.5                      0.4899999999999927       0
-0.49117702426771825      0.4847987489496142       0.011891672822882735
-0.5                      0.5                      0
-0.4932210465669886       0.4934653284311009       0.009140890759051005
0.5                       -0.4899999999999927      0
-0.49                     0.5                      0.013487024569012828
0.5                       -0.4799999999999928      0
0.49121302610573647       -0.484842293591982       1.7313515193895346E-4
-0.48000000000000004      0.5                      0.026988702736128366
-0.4849282085672251       0.4925278932058979       0.02032900250613703
0.5                       -0.46999999999999287     0
0.4918726690957855        -0.4744196637355325      2.70322452010871E-4
-0.47                     0.5                      0.04051968139878799
-0.47504574647654824      0.49220141207975493      0.033682142122799956
0.5                       -0.45999999999999297     0
0.49185227129423237       -0.464793916693888       3.731061961337572E-4
-0.45999999999999996      0.5                      0.05409480248559496
-0.4650581559017195       0.49201859536904474      0.04721364149952716
0.5                       -0.4499999999999931      0
0.49184775195266234       -0.4549221246599095      4.782143287253067E-4
-0.45                     0.5                      0.06772910570312556
-0.4550409737591558       0.49197590810955205      0.06083700640016044
0.5                       -0.4399999999999932      0
0.49186730542041235       -0.44492327158539097     5.832320728851124E-4
-0.43999999999999995      0.5                      0.08143791248268069
-0.44503243317831603      0.49196011778960463      0.07451548178276463
0.5                       -0.4299999999999933      0
0.4918886182440203        -0.4349492970559776      6.875314615038844E-4
-0.42999999999999994      0.5                      0.09523690361481481
-0.4350232477199698       0.49194147413811623      0.08827713499319993
0.5                       -0.4199999999999934      0
0.49189876865240406       -0.42497732306738073     7.925857638838774E-4
-0.42                     0.5                      0.1091422011280362
-0.4250144042758018       0.49192612956251813      0.10213655243930637
0.5                       -0.4099999999999935      0
0.4919017928650328        -0.4149932694729714      8.985703155534631E-4
-0.4099999999999999       0.5                      0.12317045654590973
-0.4150092601483093       0.49191412689822706      0.11610542407206619
0.5                       -0.3999999999999936      0
0.49190266247461556       -0.40499999999999353     0.001005154585170924
-0.3999999999999999       0.5                      0.13733894476067818
-0.4050055843439804       0.4919067904218587       0.13020374763264583
0.5                       -0.3899999999999937      0
0.49190266247461556       -0.3949999999999937      0.0011122570807190367
-0.3899999999999999       0.5                      0.15166566713853868
-0.39500270529918513      0.49190368955818464      0.14445005555418847
0.5                       -0.3799999999999938      0
0.49190266247461556       -0.3849999999999936      0.001219744984543054
-0.3799999999999999       0.5                      0.16616946478096334
-0.38500078949908106      0.4919029094896443       0.1588624657924642
0.5                       -0.36999999999999394     0
0.49190266247461556       -0.3749999999999938      0.0013276532381085724
-0.3699999999999999       0.5                      0.1808701437932744
-0.37500011442917186      0.4919027154586486       0.17345980657504187
0.5                       -0.359999999999994       0
0.49190266247461556       -0.364999999999994       0.0014360162826187026
-0.3599999999999999       0.5                      0.19578861494001218
-0.36500000950438655      0.49190267540409754      0.1882633219442047
0.5                       -0.3499999999999941      0
0.49190266247461556       -0.35499999999999404     0.0015448680018058903
-0.34999999999999987      0.5                      0.2109470504351139
-0.3549999999999999       0.49190266247461556      0.20329518725547469
0.5                       -0.33999999999999425     0
0.49190266247461556       -0.34499999999999414     0.0016542416656536235
-0.33999999999999986      0.5                      0.22636906110585372
-0.34499999999999986      0.49190266247461545      0.21857836517998755
0.5                       -0.3299999999999943      0
0.49190266247461556       -0.33499999999999425     0.0017641698711759553
-0.32999999999999985      0.5                      0.24207989777001374
-0.33499999999999985      0.49190266247461545      0.23413723855573867
0.5                       -0.3199999999999944      0
0.49190266247461556       -0.32499999999999435     0.0018746844802652338
-0.31999999999999984      0.5                      0.2581066815402789