% Model:              xy_ani2_simulation.mph
% Version:            COMSOL 4.3.2.189
% Date:               Sep 9 2020, 11:49
% Dimension:          2
% Nodes:              101
% Expressions:        1
% Description:        Temperature
% Length unit:        mm
% x                       y                        T (K)
-0.5                      0.5                      0
-0.49                     0.5                      0.013487024569012827
-0.4800000000000001       0.5                      0.026988702736128287
-0.47                     0.5                      0.04051968139878799
-0.45999999999999996      0.5                      0.05409480248559496
-0.45000000000000007      0.5                      0.06772910570312549
-0.43999999999999995      0.5                      0.08143791248268069
-0.42999999999999994      0.5                      0.09523690361481481
-0.42000000000000004      0.5                      0.10914220112803612
-0.4099999999999999       0.5                      0.12317045654590973
-0.3999999999999999       0.5                      0.13733894476067818
-0.3899999999999999       0.5                      0.15166566713853868
-0.3799999999999999       0.5                      0.16616946478096334
-0.3699999999999999       0.5                      0.18087014379327443
-0.3599999999999999       0.5                      0.19578861494001215
-0.34999999999999987      0.5                      0.2109470504351139
-0.33999999999999986      0.5                      0.22636906110585372
-0.32999999999999985      0.5                      0.24207989777001376
-0.31999999999999984      0.5                      0.2581066815402789
-0.30999999999999983      0.5                      0.2744786687696509
-0.2999999999999998       0.5                      0.2912275576349447
-0.2899999999999998       0.5                      0.3083878450038927
-0.2799999999999998       0.5                      0.32599724434048627
-0.2699999999999998       0.5                      0.34409717812629975
-0.2599999999999998       0.5                      0.36273336182336813
-0.24999999999999978      0.5                      0.3819565010682802
-0.23999999999999977      0.5                      0.40182312997740377
-0.22999999999999976      0.5                      0.42239662674479117
-0.21999999999999975      0.5                      0.4437484539727521
-0.20999999999999974      0.5                      0.4659596866299398
-0.19999999999999973      0.5                      0.4891229120281009
-0.18999999999999975      0.5                      0.5133446165401918
-0.17999999999999972      0.5                      0.5387482172561082
-0.1699999999999997       0.5                      0.5654779601622952
-0.1599999999999997       0.5                      0.593704000628718
-0.1499999999999997       0.5                      0.6236291249311997
-0.13999999999999968      0.5                      0.6554977935845848
-0.12999999999999967      0.5                      0.6896085413454516
-0.11999999999999966      0.5                      0.7263313503393911
-0.10999999999999965      0.5                      0.7661326008337589
-0.09999999999999966      0.5                      0.8096119492117797
-0.08999999999999964      0.5                      0.8575587070529213
-0.07999999999999963      0.5                      0.9110415792844506
-0.06999999999999962      0.5                      0.9715586766092159
-0.05999999999999961      0.5                      1.0413040663650341
-0.0499999999999996       0.5                      1.1236799746526411
-0.03999999999999959      0.5                      1.2243897314072916
-0.029999999999999583     0.5                      1.3541446205957217
-0.019999999999999574     0.5                      1.5371307014794942
-0.009999999999999565     0.5                      1.8535154883145442
0                         0.5                      3.21934053156193
0.010000000000000009      0.5                      1.8535154883158211
0.020000000000000018      0.5                      1.5371307014820943
0.030000000000000027      0.5                      1.3541446205995753
0.040000000000000036      0.5                      1.2243897314122931
0.050000000000000044      0.5                      1.123679974658672
0.05999999999999994       0.5                      1.0413040663719326
0.06999999999999995       0.5                      0.9715586766167804
0.07999999999999996       0.5                      0.9110415792924456
0.08999999999999997       0.5                      0.8575587070611006
0.09999999999999998       0.5                      0.8096119492198628
0.10999999999999999       0.5                      0.7661326008414298
0.12000000000000001       0.5                      0.7263313503463305
0.1299999999999999        0.5                      0.6896085413513037
0.1399999999999999        0.5                      0.6554977935889932
0.1499999999999999        0.5                      0.6236291249338154
0.15999999999999992       0.5                      0.593704000629202
0.16999999999999993       0.5                      0.5654779601603231
0.17999999999999994       0.5                      0.5387482172513979
0.18999999999999995       0.5                      0.5133446165325033
0.19999999999999996       0.5                      0.48912291201725655
0.2100000000000001        0.5                      0.465959686615838
0.21999999999999997       0.5                      0.44374845395540213
0.22999999999999998       0.5                      0.4223966267242967
0.24000000000000002       0.5                      0.40182312995397856
0.25                      0.5                      0.3819565010422595
0.26                      0.5                      0.36273336179518056
0.27                      0.5                      0.34409717809640566
0.28                      0.5                      0.3259972443093223
0.29000000000000004       0.5                      0.30838784497183647
0.30000000000000004       0.5                      0.2912275576023664
0.31000000000000005       0.5                      0.2744786687369798
0.32000000000000006       0.5                      0.2581066815079159
0.33000000000000007       0.5                      0.24207989773786173
0.3400000000000001        0.5                      0.22636906107262214
0.3500000000000001        0.5                      0.21094705039839612
0.36000000000000026       0.5                      0.1957886148973377
0.3700000000000001        0.5                      0.18087014373486
0.3800000000000001        0.5                      0.1661694646512568
0.3900000000000003        0.5                      0.15166566691191138
0.40000000000000013       0.5                      0.13733894436795469
0.41000000000000014       0.5                      0.12317045582842637
0.42000000000000026       0.5                      0.10914219979873345
0.43000000000000016       0.5                      0.09523690157074617
0.44000000000000017       0.5                      0.08143790976393257
0.4500000000000002        0.5                      0.06772910161707867
0.4600000000000002        0.5                      0.05409479496938308
0.4700000000000002        0.5                      0.0405196700044028
0.4800000000000002        0.5                      0.026988692348141864
0.4900000000000003        0.5                      0.013487016112977337
0.5                       0.5                      0
